# vtk DataFile Version 3.0
vtk output
ASCII
DATASET UNSTRUCTURED_GRID
POINTS 341 float
160.19 98.536 0 160.19 98.536 0 166.463 104.071 0 
170.153 106.47 0 174.212 106.839 0 178.456 106.285 0 
182.515 104.809 0 185.836 102.411 0 187.127 99.6431 0 
185.282 97.6135 0 183.622 95.584 0 184.36 92.263 0 
186.02 87.4659 0 186.389 83.5914 0 185.467 79.9014 0 
183.437 74.3663 0 182.515 73.6283 0 183.068 70.3073 0 
182.146 65.1412 0 179.194 59.2372 0 177.349 56.4696 0 
172.736 54.0711 0 170.522 48.5361 0 170.859 46.3537 0 
172.52 42.1102 0 171.413 39.3427 0 168.092 33.6231 0 
165.693 29.9331 0 167.169 27.719 0 170.675 27.5345 0 
172.52 25.874 0 171.228 24.5825 0 169.568 23.8445 0 
163.479 24.029 0 163.11 18.8629 0 162.372 15.5419 0 
164.586 14.4349 0 165.324 12.9589 0 166.431 13.1434 0 
167.723 14.2504 0 170.306 12.9589 0 172.889 11.1139 0 
176.21 10.7449 0 178.055 8.7153 0 181.56 6.6858 0 
182.114 5.2098 0 181.56 1.3353 0 178.055 0.4128 0 
176.763 0.0438 0 176.025 -3.2773 0 172.335 -3.8308 0 
171.966 -11.3953 0 169.937 -15.8234 0 167.907 -20.2514 0 
166.985 -22.0965 0 163.479 -28.554 0 158.867 -33.7201 0 
150.01 -39.8086 0 141.708 -42.2072 0 135.066 -42.9452 0 
132.483 -40.3621 0 130.453 -42.3917 0 126.579 -45.1592 0 
122.335 -46.2662 0 117.723 -51.0632 0 110.527 -51.6167 0 
107.206 -52.3548 0 103.701 -54.5688 0 102.04 -55.4913 0 
96.6895 -55.6758 0 95.029 -58.6278 0 91.1545 -64.1629 0 
87.8335 -68.0374 0 85.9884 -71.5429 0 81.1914 -72.2809 0 
76.9478 -72.0964 0 70.8593 -68.4064 0 67.1692 -65.8234 0 
61.4497 -65.2699 0 52.7781 -65.0854 0 48.1656 -61.7643 0 
40.601 -56.0448 0 39.125 -55.4913 0 33.2209 -58.2588 0 
36.3574 -60.1038 0 40.4165 -62.6868 0 43.553 -66.3769 0 
43.922 -69.3289 0 42.9995 -71.7274 0 37.4644 -74.6795 0 
27.1324 -74.4949 0 22.3353 -73.2034 0 14.9552 -72.0964 0 
12.0032 -71.3584 0 8.8667 -73.7569 0 8.8667 -78.0005 0 
10.3427 -82.0595 0 13.2947 -83.351 0 16.4312 -81.875 0 
30.6379 -82.0595 0 35.2504 -83.1665 0 39.3095 -85.0116 0 
41.1545 -87.2256 0 40.0475 -92.5761 0 38.387 -96.4507 0 
34.1434 -100.325 0 25.2873 -100.51 0 21.5973 -101.617 0 
15.1397 -105.122 0 9.6047 -103.462 0 5.7301 -102.17 0 
2.7781 -101.617 0 -3.4949 -97.0041 0 -5.8935 -98.2957 0 
-9.768 -98.4801 0 -11.982 -96.0816 0 -18.8086 -96.2661 0 
-19.3621 -94.9746 0 -22.4986 -94.9746 0 -26.1887 -97.9267 0 
-37.0743 -102.908 0 -39.1038 -106.598 0 -41.8713 -112.318 0 
-44.8233 -117.115 0 -50.7274 -119.882 0 -55.5244 -120.62 0 
-62.72 -119.698 0 -67.8861 -120.805 0 -73.6056 -121.727 0 
-82.6462 -120.436 0 -85.9673 -119.513 0 -88.9193 -115.823 0 
-91.5023 -113.978 0 -93.1628 -110.288 0 -93.7163 -108.259 0 
-97.5908 -105.122 0 -99.4358 -101.986 0 -101.465 -96.0816 0 
-103.864 -98.2957 0 -103.864 -104.015 0 -106.816 -105.86 0 
-117.701 -111.949 0 -122.683 -112.687 0 -127.296 -111.58 0 
-132.462 -108.997 0 -137.074 -106.045 0 -141.502 -103.277 0 
-146.115 -102.539 0 -154.417 -98.2957 0 -155.709 -96.6351 0 
-156.262 -91.2846 0 -154.971 -87.4101 0 -149.989 -81.875 0 
-145.561 -77.078 0 -143.532 -75.971 0 -141.133 -76.5245 0 
-138.735 -77.6315 0 -136.89 -75.971 0 -131.17 -69.5134 0 
-126.373 -64.7163 0 -121.945 -63.6093 0 -118.071 -61.2108 0 
-112.535 -57.3363 0 -108.661 -57.7053 0 -103.864 -60.2883 0 
-102.388 -61.5798 0 -101.281 -64.1628 0 -97.0373 -60.6573 0 
-94.0853 -59.3658 0 -87.8122 -58.8123 0 -85.9672 -57.7053 0 
-85.4137 -53.2772 0 -88.9192 -50.6942 0 -91.8712 -47.1887 0 
-89.2883 -44.2367 0 -87.6278 -40.3621 0 -78.2182 -35.5651 0 
-68.2551 -28.923 0 -60.6905 -22.4655 0 -55.7089 -17.8529 0 
-50.9119 -15.8234 0 -44.6388 -15.6389 0 -42.4248 -14.7164 0 
-37.0742 -10.4728 0 -26.7422 -6.9673 0 -18.0706 -5.6758 0 
-13.089 -6.2293 0 -6.816 -6.5983 0 -3.6795 -3.4618 0 
2.2246 2.0733 0 13.8482 2.8113 0 16.6157 2.0733 0 
26.0253 5.9478 0 30.6379 3.3648 0 27.1323 -0.8788 0 
25.1028 -5.3068 0 27.1323 -6.2293 0 31.5604 -12.6869 0 
34.5124 -14.5319 0 37.4644 -13.9784 0 44.4755 -10.1039 0 
50.7486 -7.5208 0 54.6231 -6.5983 0 65.3242 -6.4138 0 
74.9183 -6.0448 0 80.2689 -2.7238 0 84.1434 -1.9858 0 
93.1839 1.3352 0 102.409 5.2098 0 111.081 8.3463 0 
117.907 10.0068 0 124.549 11.6673 0 129.531 14.2504 0 
127.686 15.7264 0 123.811 18.3094 0 122.889 25.874 0 
122.335 38.2356 0 126.394 41.9256 0 126.948 47.0917 0 
128.239 58.3463 0 129.715 62.7743 0 131.191 65.3574 0 
131.929 71.9994 0 135.435 74.9514 0 141.523 81.2245 0 
147.059 86.5751 0 150.01 89.1581 0 150.38 91.3721 0 
153.516 93.5861 0 156.284 94.8776 0 154.623 96.5382 0 
150.564 95.0621 0 144.475 90.2651 0 143.368 91.0031 0 
144.106 93.4016 0 147.428 95.9847 0 154.439 99.6747 0 
155.915 100.597 0 -81.2865 -57.2134 0 -83.7743 -60.4667 0 
-81.4779 -63.1459 0 -76.8851 -65.6337 0 -69.6131 -67.9301 0 
-65.2116 -68.3128 0 -60.8101 -73.2884 0 -50.8589 -73.2884 0 
-47.0316 -72.1402 0 -44.161 -69.2697 0 -38.9941 -70.0351 0 
-36.6977 -73.4798 0 -36.1236 -79.6036 0 -34.2099 -77.8812 0 
-27.1292 -78.6467 0 -24.4501 -79.9863 0 -21.9623 -80.5604 0 
-16.0299 -80.5604 0 -12.3939 -73.8625 0 -11.437 -67.9301 0 
-2.2513 -65.0596 0 -0.3377 -62.5718 0 2.9156 -58.1703 0 
3.4897 -56.2566 0 7.3171 -57.0221 0 11.5272 -59.5099 0 
15.3546 -58.7444 0 19.5647 -54.917 0 23.0093 -53.3861 0 
28.3676 -54.3429 0 31.8123 -54.3429 0 34.8742 -51.4724 0 
35.2569 -49.176 0 31.8123 -46.8795 0 26.8367 -43.8176 0 
22.8179 -40.7558 0 20.9043 -39.0334 0 18.0337 -37.8852 0 
14.7805 -38.4593 0 12.484 -41.1385 0 8.4653 -44.3918 0 
5.212 -45.7313 0 -0.3377 -45.1572 0 -6.2701 -42.2867 0 
-10.8629 -38.6507 0 -16.0299 -36.3543 0 -19.6659 -33.4837 0 
-23.1105 -31.1873 0 -26.1724 -26.9772 0 -27.512 -23.5326 0 
-32.1048 -24.1067 0 -33.6358 -26.4031 0 -35.7408 -28.3168 0 
-41.4819 -31.3787 0 -44.5438 -34.2492 0 -45.692 -37.6939 0 
-46.6488 -44.2004 0 -48.3712 -47.8364 0 -51.4331 -50.8983 0 
-57.9396 -57.4048 0 -62.5324 -60.8494 0 -69.8044 -61.6149 0 
-74.3973 -60.2753 0 -78.416 -58.3617 0 -145.518 -89.4571 0 
-122.785 -104.072 0 -122.243 -87.292 0 -121.702 -70.5126 0 
-100.572 -78.0904 0 -73.529 -111.095 0 -71.364 -91.6222 0 
-70.2814 -75.9253 0 -57.8322 -99.2 0 -32.6222 -87.292 0 
-8.6806 -85.1269 0 22.2761 -92.1635 0 20.6523 -62.9348 0 
-73.8913 -48.3204 0 -47.9439 -25.4222 0 -25.3558 -16.9267 0 
-5.3288 -37.495 0 -0.4573 -19.633 0 2.249 -3.9361 0 
32.019 -27.2108 0 79.1096 -61.311 0 75.7046 -39.6236 0 
72.8481 -16.1807 0 123.494 -39.1188 0 117.54 -24.5045 0 
112.127 -12.5965 0 106.173 -0.1472 0 163.588 3.3254 0 
153.264 5.8067 0 141.897 9.0544 0 131.613 11.2195 0 
163.548 46.4022 0 151.854 50.1911 0 141.897 53.98 0 
131.613 58.3102 0 173.832 76.7134 0 164.089 76.7134 0 
154.346 76.7134 0 144.604 76.7134 0 
CELL_TYPES 0

POINT_DATA 341
VECTORS vectors double
1 1 1 1 1 1 1 1 1 
1 1 1 1 1 1 1 1 1 
1 1 1 1 1 1 1 1 1 
1 1 1 1 1 1 1 1 1 
1 1 1 1 1 1 1 1 1 
1 1 1 1 1 1 1 1 1 
1 1 1 1 1 1 1 1 1 
1 1 1 1 1 1 1 1 1 
1 1 1 1 1 1 1 1 1 
1 1 1 1 1 1 1 1 1 
1 1 1 1 1 1 1 1 1 
1 1 1 1 1 1 1 1 1 
1 1 1 1 1 1 1 1 1 
1 1 1 1 1 1 1 1 1 
1 1 1 1 1 1 1 1 1 
1 1 1 1 1 1 1 1 1 
1 1 1 1 1 1 1 1 1 
1 1 1 1 1 1 1 1 1 
1 1 1 1 1 1 1 1 1 
1 1 1 1 1 1 1 1 1 
1 1 1 1 1 1 1 1 1 
1 1 1 1 1 1 1 1 1 
1 1 1 1 1 1 1 1 1 
1 1 1 1 1 1 1 1 1 
1 1 1 1 1 1 1 1 1 
1 1 1 1 1 1 1 1 1 
1 1 1 1 1 1 1 1 1 
1 1 1 1 1 1 1 1 1 
1 1 1 1 1 1 1 1 1 
1 1 1 1 1 1 1 1 1 
1 1 1 1 1 1 1 1 1 
1 1 1 1 1 1 1 1 1 
1 1 1 1 1 1 1 1 1 
1 1 1 1 1 1 1 1 1 
1 1 1 1 1 1 1 1 1 
1 1 1 1 1 1 1 1 1 
1 1 1 1 1 1 1 1 1 
1 1 1 1 1 1 1 1 1 
1 1 1 1 1 1 1 1 1 
1 1 1 1 1 1 1 1 1 
1 1 1 1 1 1 1 1 1 
1 1 1 1 1 1 1 1 1 
1 1 1 1 1 1 1 1 1 
1 1 1 1 1 1 1 1 1 
1 1 1 1 1 1 1 1 1 
1 1 1 1 1 1 1 1 1 
1 1 1 1 1 1 1 1 1 
1 1 1 1 1 1 1 1 1 
1 1 1 1 1 1 1 1 1 
1 1 1 1 1 1 1 1 1 
1 1 1 1 1 1 1 1 1 
1 1 1 1 1 1 1 1 1 
1 1 1 1 1 1 1 1 1 
1 1 1 1 1 1 1 1 1 
1 1 1 1 1 1 1 1 1 
1 1 1 1 1 1 1 1 1 
1 1 1 1 1 1 1 1 1 
1 1 1 1 1 1 1 1 1 
1 1 1 1 1 1 1 1 1 
1 1 1 1 1 1 1 1 1 
1 1 1 1 1 1 1 1 1 
1 1 1 1 1 1 1 1 1 
1 1 1 1 1 1 1 1 1 
1 1 1 1 1 1 1 1 1 
1 1 1 1 1 1 1 1 1 
1 1 1 1 1 1 1 1 1 
1 1 1 1 1 1 -1 -1 -1 
-1 -1 -1 -1 -1 -1 -1 -1 -1 
-1 -1 -1 -1 -1 -1 -1 -1 -1 
-1 -1 -1 -1 -1 -1 -1 -1 -1 
-1 -1 -1 -1 -1 -1 -1 -1 -1 
-1 -1 -1 -1 -1 -1 -1 -1 -1 
-1 -1 -1 -1 -1 -1 -1 -1 -1 
-1 -1 -1 -1 -1 -1 -1 -1 -1 
-1 -1 -1 -1 -1 -1 -1 -1 -1 
-1 -1 -1 -1 -1 -1 -1 -1 -1 
-1 -1 -1 -1 -1 -1 -1 -1 -1 
-1 -1 -1 -1 -1 -1 -1 -1 -1 
-1 -1 -1 -1 -1 -1 -1 -1 -1 
-1 -1 -1 -1 -1 -1 -1 -1 -1 
-1 -1 -1 -1 -1 -1 -1 -1 -1 
-1 -1 -1 -1 -1 -1 -1 -1 -1 
-1 -1 -1 -1 -1 -1 -1 -1 -1 
-1 -1 -1 -1 -1 -1 -1 -1 -1 
-1 -1 -1 -1 -1 -1 -1 -1 -1 
-1 -1 -1 -1 -1 -1 -1 -1 -1 
-1 -1 -1 -1 -1 -1 -1 -1 -1 
-1 -1 -1 -1 -1 -1 -1 -1 -1 
-1 -1 -1 -1 -1 -1 -1 -1 -1 
-1 -1 -1 -1 -1 -1 -1 -1 -1 
-1 -1 -1 -1 -1 -1 -1 -1 -1 
-1 -1 -1 -1 -1 -1 -1 -1 -1 
-1 -1 -1 -1 -1 -1 -1 -1 -1 
-1 -1 -1 -1 -1 -1 -1 -1 -1 
-1 -1 -1 -1 -1 -1 -1 -1 -1 
-1 -1 -1 -1 -1 -1 -1 -1 -1 
-1 -1 -1 -1 -1 -1 -1 -1 -1 
-1 -1 -1 -1 -1 -1 -1 -1 -1 
-1 -1 -1 -1 -1 -1 -1 -1 -1 
-1 -1 -1 -1 -1 -1 -1 -1 -1 
1 1 1 1 1 1 5 -1 4 
5 -1 8 6 -1 7 6 -1 2 
7 -1 0 3 -1 4 4 -1 8 
7 -1 1 4 -1 9 5 -1 0 
5 -1 1 8 -1 3 5 -1 4 
4 -1 3 3 -1 5 5 -1 0 
5 -1 7 5 -1 4 2 -1 5 
5 -1 7 2 -1 2 6 -1 3 
6 -1 1 4 -1 2 8 -1 3 
8 -1 0 5 -1 3 5 -1 5 
8 -1 9 5 -1 4 6 -1 3 
6 -1 6 6 -1 0 6 -1 1 
6 -1 8 2 -1 0 8 -1 7 
6 -1 8 8 -1 2 
